# vtk DataFile Version 4.2
vtk output
ASCII
DATASET UNSTRUCTURED_GRID
POINTS 2016 float
139.702 151.91 -250.128 147.932 159.275 -312.294 156.163 166.64 -374.46 
152.796 120.333 -250.135 162.846 125.299 -312.228 172.897 130.264 -374.32 
165.89 88.7571 -250.142 177.76 91.3225 -312.161 189.631 93.8879 -374.18 
-7.75874 337.174 -257.968 -3.85899 322.276 -316.191 0.0407536 307.379 -374.415 
47.0754 294.971 -254.17 52.4365 288.669 -314.394 57.7976 282.368 -374.618 
101.91 252.768 -250.373 108.732 255.062 -312.597 115.554 257.357 -374.822 
201.149 -69.0738 -251.664 199.543 -23.7074 -250.539 197.937 21.659 -249.415 
208.684 -69.8432 -313.627 207.47 -24.0872 -312.71 206.255 21.6688 -311.793 
216.219 -70.6126 -375.59 215.396 -24.4671 -374.881 214.573 21.6785 -374.172 
165.89 88.7571 -250.142 177.76 91.3225 -312.161 189.631 93.8879 -374.18 
181.914 55.208 -249.778 192.008 56.4956 -311.977 202.102 57.7832 -374.176 
197.937 21.659 -249.415 206.255 21.6688 -311.793 214.573 21.6785 -374.172 
120.202 -252.894 -248.364 164.482 -216.352 -249.96 208.763 -179.81 -251.555 
117.926 -244.962 -311.388 163.113 -209.762 -312.476 208.3 -174.563 -313.564 
115.65 -237.03 -374.413 161.744 -203.173 -374.992 207.837 -169.316 -375.572 
101.91 252.768 -250.373 108.732 255.062 -312.597 115.554 257.357 -374.822 
120.806 202.339 -250.25 128.332 207.169 -312.446 135.859 211.998 -374.641 
139.702 151.91 -250.128 147.932 159.275 -312.294 156.163 166.64 -374.46 
-1.23056 -277.835 -250.475 59.4857 -265.365 -249.42 120.202 -252.894 -248.364 
1.86084 -277.784 -312.654 59.8934 -261.373 -312.021 117.926 -244.962 -311.388 
4.95225 -277.732 -374.833 60.3011 -257.381 -374.623 115.65 -237.03 -374.413 
201.149 -69.0738 -251.664 208.684 -69.8432 -313.627 216.219 -70.6126 -375.59 
204.956 -124.442 -251.61 208.492 -122.203 -313.595 212.028 -119.964 -375.581 
208.763 -179.81 -251.555 208.3 -174.563 -313.564 207.837 -169.316 -375.572 
142.765 91.3818 -124.938 154.327 90.0694 -187.54 165.89 88.7571 -250.142 
159.315 56.4562 -124.751 170.614 55.8321 -187.265 181.914 55.208 -249.778 
175.865 21.5305 -124.565 186.901 21.5948 -186.99 197.937 21.659 -249.415 
118.394 154.605 -124.977 129.048 153.257 -187.553 139.702 151.91 -250.128 
130.579 122.993 -124.957 141.688 121.663 -187.546 152.796 120.333 -250.135 
142.765 91.3818 -124.938 154.327 90.0694 -187.54 165.89 88.7571 -250.142 
96.8506 153.787 -0.00662402 107.622 154.196 -62.4919 118.394 154.605 -124.977 
108.467 122.544 -0.0191174 119.523 122.769 -62.4883 130.579 122.993 -124.957 
120.083 91.301 -0.0316108 131.424 91.3414 -62.4846 142.765 91.3818 -124.938 
206.158 -82.4871 -125.565 203.654 -75.7804 -188.615 201.149 -69.0738 -251.664 
225.512 -141.333 -125.401 215.234 -132.887 -188.505 204.956 -124.442 -251.61 
244.866 -200.179 -125.236 226.814 -189.995 -188.396 208.763 -179.81 -251.555 
192.686 -105.103 1.95999 199.422 -93.795 -61.8025 206.158 -82.4871 -125.565 
202.102 -159.15 9.93256 213.807 -150.242 -57.734 225.512 -141.333 -125.401 
211.519 -213.198 17.9051 228.192 -206.689 -53.6656 244.866 -200.179 -125.236 
-7.67571 -274.121 -123.352 59.0723 -267.866 -124.02 125.82 -261.612 -124.689 
-4.45314 -275.978 -186.913 59.279 -266.615 -186.72 123.011 -257.253 -186.526 
-1.23056 -277.835 -250.475 59.4857 -265.365 -249.42 120.202 -252.894 -248.364 
-16.676 -269.545 1.87848 40.0967 -268.957 3.79276 96.8694 -268.368 5.70705 
-12.1758 -271.833 -60.7365 49.5845 -268.411 -60.1137 111.345 -264.99 -59.4909 
-7.67571 -274.121 -123.352 59.0723 -267.866 -124.02 125.82 -261.612 -124.689 
206.158 -82.4871 -125.565 191.012 -30.4783 -125.065 175.865 21.5305 -124.565 
203.654 -75.7804 -188.615 195.277 -27.0928 -187.802 186.901 21.5948 -186.99 
201.149 -69.0738 -251.664 199.543 -23.7074 -250.539 197.937 21.659 -249.415 
88.9299 258.658 -123.471 95.4197 255.713 -186.922 101.91 252.768 -250.373 
103.662 206.631 -124.224 112.234 204.485 -187.237 120.806 202.339 -250.25 
118.394 154.605 -124.977 129.048 153.257 -187.553 139.702 151.91 -250.128 
78.4318 249.153 9.16536 83.6809 253.905 -57.1531 88.9299 258.658 -123.471 
87.6412 201.47 4.57937 95.6516 204.051 -59.8225 103.662 206.631 -124.224 
96.8506 153.787 -0.00662402 107.622 154.196 -62.4919 118.394 154.605 -124.977 
13.4101 365.371 -132.472 2.8257 351.272 -195.22 -7.75874 337.174 -257.968 
51.17 312.015 -127.972 49.1227 303.493 -191.071 47.0754 294.971 -254.17 
88.9299 258.658 -123.471 95.4197 255.713 -186.922 101.91 252.768 -250.373 
22.1759 366.37 43.5721 17.793 365.87 -44.4498 13.4101 365.371 -132.472 
50.3038 307.761 26.3687 50.7369 309.888 -50.8014 51.17 312.015 -127.972 
78.4318 249.153 9.16536 83.6809 253.905 -57.1531 88.9299 258.658 -123.471 
125.82 -261.612 -124.689 185.343 -230.896 -124.962 244.866 -200.179 -125.236 
123.011 -257.253 -186.526 174.913 -223.624 -187.461 226.814 -189.995 -188.396 
120.202 -252.894 -248.364 164.482 -216.352 -249.96 208.763 -179.81 -251.555 
96.8694 -268.368 5.70705 154.194 -240.783 11.8061 211.519 -213.198 17.9051 
111.345 -264.99 -59.4909 169.769 -235.839 -56.5782 228.192 -206.689 -53.6656 
125.82 -261.612 -124.689 185.343 -230.896 -124.962 244.866 -200.179 -125.236 
120.083 91.301 -0.0316108 131.424 91.3414 -62.4846 142.765 91.3818 -124.938 
136.087 55.7769 -0.0158054 147.701 56.1165 -62.3836 159.315 56.4562 -124.751 
152.09 20.2529 0 163.978 20.8917 -62.2825 175.865 21.5305 -124.565 
192.686 -105.103 1.95999 172.388 -42.4251 0.979995 152.09 20.2529 0 
199.422 -93.795 -61.8025 181.7 -36.4517 -62.0425 163.978 20.8917 -62.2825 
206.158 -82.4871 -125.565 191.012 -30.4783 -125.065 175.865 21.5305 -124.565 
78.986 -101.476 237.538 110.877 -95.8812 203.277 142.767 -90.2866 169.016 
78.4042 -160.843 221.746 109.945 -149.833 193.572 141.486 -138.823 165.399 
77.8224 -220.211 205.953 109.014 -203.785 183.867 140.205 -187.359 161.782 
36.3012 140.196 131.359 54.784 139.05 125.524 73.2669 137.903 119.688 
44.7962 116.782 156.17 65.0862 114.562 141.939 85.3761 112.343 127.707 
53.2913 93.3671 180.982 75.3883 90.0747 158.354 97.4854 86.7822 135.726 
-16.3924 -104.717 268.072 31.2968 -103.096 252.805 78.986 -101.476 237.538 
-16.2716 -167.814 245.899 31.0663 -164.329 233.822 78.4042 -160.843 221.746 
-16.1509 -230.912 223.726 30.8357 -225.562 214.84 77.8224 -220.211 205.953 
-16.3924 -104.717 268.072 -13.5842 -43.6899 263.789 -10.776 17.3368 259.507 
31.2968 -103.096 252.805 31.8801 -43.8801 248.525 32.4634 15.3359 244.246 
78.986 -101.476 237.538 77.3444 -44.0703 233.262 75.7029 13.3351 228.985 
-10.1185 99.6707 202.247 21.5864 96.5189 191.614 53.2913 93.3671 180.982 
-10.4473 58.5037 230.877 27.0249 55.9274 217.93 64.4971 53.3511 204.983 
-10.776 17.3368 259.507 32.4634 15.3359 244.246 75.7029 13.3351 228.985 
-13.7988 148.042 144.189 11.2512 144.119 137.774 36.3012 140.196 131.359 
-11.9587 123.856 173.218 16.4188 120.319 164.694 44.7962 116.782 156.17 
-10.1185 99.6707 202.247 21.5864 96.5189 191.614 53.2913 93.3671 180.982 
78.986 -101.476 237.538 77.3444 -44.0703 233.262 75.7029 13.3351 228.985 
110.877 -95.8812 203.277 107.07 -42.107 199.072 103.263 11.6671 194.867 
142.767 -90.2866 169.016 136.795 -40.1437 164.882 130.823 9.99911 160.749 
53.2913 93.3671 180.982 75.3883 90.0747 158.354 97.4854 86.7822 135.726 
64.4971 53.3511 204.983 89.3256 50.8709 176.61 114.154 48.3906 148.237 
75.7029 13.3351 228.985 103.263 11.6671 194.867 130.823 9.99911 160.749 
3.52368 262.351 121.94 12.8498 314.36 82.7562 22.1759 366.37 43.5721 
31.4615 231.931 106.292 40.8826 269.846 66.3304 50.3038 307.761 26.3687 
59.3992 201.51 90.6438 68.9155 225.331 49.9046 78.4318 249.153 9.16536 
59.3992 201.51 90.6438 68.9155 225.331 49.9046 78.4318 249.153 9.16536 
72.1505 175.072 81.2198 79.8958 188.271 42.8996 87.6412 201.47 4.57937 
84.9017 148.635 71.7958 90.8762 151.211 35.8946 96.8506 153.787 -0.00662402 
36.3012 140.196 131.359 47.8502 170.853 111.001 59.3992 201.51 90.6438 
54.784 139.05 125.524 63.4673 157.061 103.372 72.1505 175.072 81.2198 
73.2669 137.903 119.688 79.0843 143.269 95.7419 84.9017 148.635 71.7958 
-13.7988 148.042 144.189 -5.13758 205.197 133.065 3.52368 262.351 121.94 
11.2512 144.119 137.774 21.3563 188.025 122.033 31.4615 231.931 106.292 
36.3012 140.196 131.359 47.8502 170.853 111.001 59.3992 201.51 90.6438 
-16.1509 -230.912 223.726 30.8357 -225.562 214.84 77.8224 -220.211 205.953 
-17.2771 -248.627 167.12 30.9741 -243.611 161.745 79.2254 -238.595 156.37 
-18.4034 -266.341 110.513 31.1125 -261.66 108.651 80.6284 -256.979 106.788 
77.8224 -220.211 205.953 109.014 -203.785 183.867 140.205 -187.359 161.782 
79.2254 -238.595 156.37 117.939 -215.291 143.104 156.653 -191.988 129.838 
80.6284 -256.979 106.788 126.865 -226.798 102.34 173.101 -196.616 97.8932 
80.6284 -256.979 106.788 126.865 -226.798 102.34 173.101 -196.616 97.8932 
88.7489 -262.674 56.2474 140.529 -233.79 57.0733 192.31 -204.907 57.8991 
96.8694 -268.368 5.70705 154.194 -240.783 11.8061 211.519 -213.198 17.9051 
-18.4034 -266.341 110.513 31.1125 -261.66 108.651 80.6284 -256.979 106.788 
-17.5397 -267.943 56.1959 35.6046 -265.308 56.2216 88.7489 -262.674 56.2474 
-16.676 -269.545 1.87848 40.0967 -268.957 3.79276 96.8694 -268.368 5.70705 
164.639 -85.7882 86.9387 178.662 -95.4456 44.4493 192.686 -105.103 1.95999 
168.87 -141.202 92.4159 185.486 -150.176 51.1742 202.102 -159.15 9.93256 
173.101 -196.616 97.8932 192.31 -204.907 57.8991 211.519 -213.198 17.9051 
164.639 -85.7882 86.9387 154.466 -34.0914 83.6673 144.294 17.6054 80.3959 
178.662 -95.4456 44.4493 163.427 -38.2582 42.3236 148.192 18.9291 40.1979 
192.686 -105.103 1.95999 172.388 -42.4251 0.979995 152.09 20.2529 0 
111.337 87.301 71.9604 115.71 89.301 35.9644 120.083 91.301 -0.0316108 
127.815 52.4532 76.1781 131.951 54.1151 38.0812 136.087 55.7769 -0.0158054 
144.294 17.6054 80.3959 148.192 18.9291 40.1979 152.09 20.2529 0 
142.767 -90.2866 169.016 153.703 -88.0374 127.977 164.639 -85.7882 86.9387 
141.486 -138.823 165.399 155.178 -140.013 128.907 168.87 -141.202 92.4159 
[...]
POINT_DATA 2016
FIELD FieldData 1
displacement 3 2016 float
-0.00807967 0.00777548 0.0226446 -0.00578768 0.00740393 0.0211006 -0.00361925 0.00704544 0.0195118 
-0.0080998 0.00676524 0.0235347 -0.00570179 0.00629866 0.0220414 -0.00342022 0.00585162 0.020489 
-0.00811451 0.00566419 0.0244205 -0.00561416 0.0050719 0.0229814 -0.00323338 0.00450159 0.0214774 
-0.00852315 0.0133831 0.0155679 -0.00703589 0.0124066 0.0145643 -0.00559329 0.0114557 0.0135409 
-0.00823393 0.0118117 0.0177746 -0.00650996 0.0110337 0.0166008 -0.00486049 0.010269 0.0153986 
-0.00784846 0.0104258 0.020083 -0.00587165 0.00989546 0.0186982 -0.00398141 0.00938635 0.0172764 
-0.00981806 -5.66835e-05 0.0275281 -0.0089812 0.00158161 0.0269809 -0.00831893 0.00306573 0.0264308 
-0.00730938 -0.00103854 0.0258916 -0.00643723 0.000733022 0.0253527 -0.00578686 0.00234128 0.0248172 
-0.0049428 -0.00197696 0.0241695 -0.00402808 -0.000104451 0.023652 -0.00338177 0.00162468 0.0231363 
-0.00811451 0.00566419 0.0244205 -0.00561416 0.0050719 0.0229814 -0.00323338 0.00450159 0.0214774 
-0.00817479 0.00438036 0.0254328 -0.00565076 0.00372743 0.0239072 -0.0032507 0.00309544 0.0223148 
-0.00831893 0.00306573 0.0264308 -0.00578686 0.00234128 0.0248172 -0.00338177 0.00162468 0.0231363 
-0.0174309 -0.00293136 0.0270047 -0.0151568 -0.00335232 0.0280652 -0.0130061 -0.00371693 0.0291457 
-0.0152235 -0.00374748 0.0250845 -0.0128374 -0.00420729 0.0261216 -0.0106187 -0.00453349 0.0271859 
-0.0130918 -0.00451388 0.0230473 -0.0105826 -0.00497988 0.0240553 -0.00828928 -0.00522078 0.0250945 
-0.00784846 0.0104258 0.020083 -0.00587165 0.00989546 0.0186982 -0.00398141 0.00938635 0.0172764 
-0.00800711 0.00915806 0.0212965 -0.00589106 0.00870847 0.0198435 -0.00387994 0.00826896 0.0183514 
-0.00807967 0.00777548 0.0226446 -0.00578768 0.00740393 0.0211006 -0.00361925 0.00704544 0.0195118 
-0.0208201 -0.000118904 0.0229387 -0.0192146 -0.00155216 0.0249264 -0.0174309 -0.00293136 0.0270047 
-0.0189344 -0.00102376 0.0215277 -0.0171971 -0.00242136 0.0232603 -0.0152235 -0.00374748 0.0250845 
-0.0171806 -0.00192569 0.0200333 -0.0152905 -0.00326828 0.0214972 -0.0130918 -0.00451388 0.0230473 
-0.00981806 -5.66835e-05 0.0275281 -0.00730938 -0.00103854 0.0258916 -0.0049428 -0.00197696 0.0241695 
-0.0112027 -0.0020263 0.0282558 -0.00875177 -0.00294009 0.0264902 -0.00642722 -0.00375234 0.0245987 
-0.0130061 -0.00371693 0.0291457 -0.0106187 -0.00453349 0.0271859 -0.00828928 -0.00522078 0.0250945 
-0.0134872 0.00705902 0.0267701 -0.0107831 0.00634549 0.0256978 -0.00811451 0.00566419 0.0244205 
-0.0136987 0.00585794 0.0278451 -0.0109171 0.00510517 0.026752 -0.00817479 0.00438036 0.0254328 
-0.0139276 0.00459769 0.028894 -0.0110993 0.00381583 0.0277849 -0.00831893 0.00306573 0.0264308 
-0.0130148 0.00899427 0.0249826 -0.010525 0.00836641 0.0238908 -0.00807967 0.00777548 0.0226446 
-0.0132575 0.00804624 0.0258858 -0.0106584 0.00738802 0.0248006 -0.0080998 0.00676524 0.0235347 
-0.0134872 0.00705902 0.0267701 -0.0107831 0.00634549 0.0256978 -0.00811451 0.00566419 0.0244205 
-0.0180259 0.0104201 0.0267931 -0.0155495 0.00965364 0.0259559 -0.0130148 0.00899427 0.0249826 
-0.0184016 0.00951859 0.0276505 -0.0158715 0.00873652 0.0268355 -0.0132575 0.00804624 0.0258858 
-0.0187646 0.00861255 0.0284921 -0.0161797 0.00780295 0.0276966 -0.0134872 0.00705902 0.0267701 
-0.0153269 0.00102615 0.0311303 -0.01255 0.000471782 0.0294617 -0.00981806 -5.66835e-05 0.0275281 
-0.0163555 -0.000963671 0.0324565 -0.0137633 -0.00150001 0.0304653 -0.0112027 -0.0020263 0.0282558 
-0.0175064 -0.00277462 0.0340853 -0.0152304 -0.003254 0.0317221 -0.0130061 -0.00371693 0.0291457 
-0.0210732 0.00263387 0.0335319 -0.0182325 0.00181106 0.0323451 -0.0153269 0.00102615 0.0311303 
-0.0223088 0.00132542 0.0346781 -0.0193709 0.000185371 0.0335745 -0.0163555 -0.000963671 0.0324565 
-0.0235694 9.6577e-05 0.0359466 -0.0205807 -0.00131789 0.0350099 -0.0175064 -0.00277462 0.0340853 
-0.0248969 0.00168645 0.0256094 -0.0233127 0.000191121 0.0279385 -0.0216215 -0.00124213 0.030333 
-0.0228287 0.000816196 0.0242891 -0.0212425 -0.000679412 0.0264705 -0.0194937 -0.00209834 0.0287296 
-0.0208201 -0.000118904 0.0229387 -0.0192146 -0.00155216 0.0249264 -0.0174309 -0.00293136 0.0270047 
-0.0290809 0.00344971 0.0281382 -0.027959 0.00227017 0.030194 -0.0267653 0.00111037 0.0322639 
-0.0270094 0.00259056 0.0268585 -0.0256587 0.00123914 0.0290586 -0.0242147 -5.07023e-05 0.0312838 
-0.0248969 0.00168645 0.0256094 -0.0233127 0.000191121 0.0279385 -0.0216215 -0.00124213 0.030333 
-0.0153269 0.00102615 0.0311303 -0.014567 0.00283454 0.030026 -0.0139276 0.00459769 0.028894 
-0.01255 0.000471782 0.0294617 -0.011753 0.00219415 0.0286338 -0.0110993 0.00381583 0.0277849 
-0.00981806 -5.66835e-05 0.0275281 -0.0089812 0.00158161 0.0269809 -0.00831893 0.00306573 0.0264308 
-0.0120229 0.0116804 0.0225441 -0.00989654 0.0110314 0.0213757 -0.00784846 0.0104258 0.020083 
-0.0125413 0.010371 0.0237047 -0.0102459 0.00974661 0.0225643 -0.00800711 0.00915806 0.0212965 
-0.0130148 0.00899427 0.0249826 -0.010525 0.00836641 0.0238908 -0.00807967 0.00777548 0.0226446 
-0.0168042 0.0128802 0.0249854 -0.0144076 0.0122356 0.0238078 -0.0120229 0.0116804 0.0225441 
-0.0174161 0.0116543 0.0258679 -0.0149837 0.0109619 0.0248446 -0.0125413 0.010371 0.0237047 
-0.0180259 0.0104201 0.0267931 -0.0155495 0.00965364 0.0259559 -0.0130148 0.00899427 0.0249826 
-0.0114322 0.0149211 0.018573 -0.00995602 0.0141562 0.0170902 -0.00852315 0.0133831 0.0155679 
-0.0117413 0.013269 0.0204905 -0.00995784 0.0125341 0.0191724 -0.00823393 0.0118117 0.0177746 
-0.0120229 0.0116804 0.0225441 -0.00989654 0.0110314 0.0213757 -0.00784846 0.0104258 0.020083 
-0.0167889 0.0167358 0.0223122 -0.0140826 0.0157968 0.0204589 -0.0114322 0.0149211 0.018573 
-0.0167832 0.0148194 0.0235864 -0.0142529 0.0140021 0.0220689 -0.0117413 0.013269 0.0204905 
-0.0168042 0.0128802 0.0249854 -0.0144076 0.0122356 0.0238078 -0.0120229 0.0116804 0.0225441 
-0.0216215 -0.00124213 0.030333 -0.0195092 -0.00201292 0.0321861 -0.0175064 -0.00277462 0.0340853 
-0.0194937 -0.00209834 0.0287296 -0.0172909 -0.00270286 0.0302155 -0.0152304 -0.003254 0.0317221 
-0.0174309 -0.00293136 0.0270047 -0.0151568 -0.00335232 0.0280652 -0.0130061 -0.00371693 0.0291457 
-0.0267653 0.00111037 0.0322639 -0.0251301 0.000567278 0.0341035 -0.0235694 9.6577e-05 0.0359466 
-0.0242147 -5.07023e-05 0.0312838 -0.0223533 -0.000701846 0.0331247 -0.0205807 -0.00131789 0.0350099 
-0.0216215 -0.00124213 0.030333 -0.0195092 -0.00201292 0.0321861 -0.0175064 -0.00277462 0.0340853 
-0.0187646 0.00861255 0.0284921 -0.0161797 0.00780295 0.0276966 -0.0134872 0.00705902 0.0267701 
-0.0191099 0.00751222 0.029539 -0.0164531 0.00666563 0.0287563 -0.0136987 0.00585794 0.0278451 
-0.0194266 0.00638839 0.0305692 -0.0167203 0.00548066 0.0297911 -0.0139276 0.00459769 0.028894 
-0.0210732 0.00263387 0.0335319 -0.0202244 0.00452777 0.0320666 -0.0194266 0.00638839 0.0305692 
-0.0182325 0.00181106 0.0323451 -0.0174292 0.00366724 0.0310863 -0.0167203 0.00548066 0.0297911 
-0.0153269 0.00102615 0.0311303 -0.014567 0.00283454 0.030026 -0.0139276 0.00459769 0.028894 
-0.0312838 0.0083057 0.0341624 -0.0294849 0.00733382 0.0344636 -0.0276504 0.00635814 0.034798 
-0.0319802 0.00689241 0.0346506 -0.0302583 0.00611855 0.0349865 -0.0285126 0.00533849 0.0353522 
-0.0326489 0.00546882 0.0351521 -0.0310128 0.00489042 0.0355338 -0.0293567 0.0043076 0.0359331 
-0.023722 0.0128754 0.0274855 -0.0232392 0.0123741 0.027978 -0.0227387 0.0118783 0.0284868 
-0.024855 0.0124513 0.0285879 -0.0240887 0.0118109 0.0289795 -0.0233058 0.0111738 0.0293946 
-0.0259805 0.0120641 0.0296571 -0.024934 0.0112721 0.0299633 -0.0238671 0.0104806 0.0302961 
-0.0340337 0.0104745 0.0318443 -0.0326824 0.00939914 0.0329735 -0.0312838 0.0083057 0.0341624 
-0.0346408 0.00884596 0.0322192 -0.0333273 0.00788062 0.033409 -0.0319802 0.00689241 0.0346506 
-0.035185 0.00723424 0.0325834 -0.0339348 0.00636467 0.0338497 -0.0326489 0.00546882 0.0351521 
-0.0340337 0.0104745 0.0318443 -0.0326309 0.0116546 0.0310359 -0.0311687 0.0128101 0.0302364 
-0.0326824 0.00939914 0.0329735 -0.0313518 0.0105527 0.0321122 -0.0299762 0.0116897 0.0312678 
-0.0312838 0.0083057 0.0341624 -0.0300321 0.00944173 0.0332483 -0.0287432 0.0105703 0.0323567 
-0.0276742 0.0138082 0.0280381 -0.0268341 0.0129272 0.0288315 -0.0259805 0.0120641 0.0296571 
-0.0294428 0.0133007 0.0291398 -0.0284229 0.0122998 0.0300503 -0.0273767 0.0113076 0.0310088 
-0.0311687 0.0128101 0.0302364 -0.0299762 0.0116897 0.0312678 -0.0287432 0.0105703 0.0323567 
-0.0248729 0.014337 0.0261196 -0.0242835 0.0135939 0.0267752 -0.023722 0.0128754 0.0274855 
-0.0262756 0.0140528 0.0271012 -0.0255617 0.0132388 0.0278258 -0.024855 0.0124513 0.0285879 
-0.0276742 0.0138082 0.0280381 -0.0268341 0.0129272 0.0288315 -0.0259805 0.0120641 0.0296571 
-0.0312838 0.0083057 0.0341624 -0.0300321 0.00944173 0.0332483 -0.0287432 0.0105703 0.0323567 
-0.0294849 0.00733382 0.0344636 -0.0283563 0.00844254 0.0335268 -0.0271946 0.00954748 0.0326117 
-0.0276504 0.00635814 0.034798 -0.0266446 0.00744376 0.0338387 -0.0256089 0.00852716 0.0328975 
-0.0259805 0.0120641 0.0296571 -0.024934 0.0112721 0.0299633 -0.0238671 0.0104806 0.0302961 
-0.0273767 0.0113076 0.0310088 -0.0260744 0.0104006 0.0312907 -0.0247457 0.00949417 0.0316011 
-0.0287432 0.0105703 0.0323567 -0.0271946 0.00954748 0.0326117 -0.0256089 0.00852716 0.0328975 
-0.0215938 0.0160742 0.024484 -0.0191992 0.0163729 0.0233694 -0.0167889 0.0167358 0.0223122 
-0.0211586 0.0146651 0.0254809 -0.018982 0.0147169 0.0245219 -0.0167832 0.0148194 0.0235864 
-0.0207489 0.0132237 0.0265331 -0.018798 0.0130284 0.0257529 -0.0168042 0.0128802 0.0249854 
-0.0207489 0.0132237 0.0265331 -0.018798 0.0130284 0.0257529 -0.0168042 0.0128802 0.0249854 
-0.0207557 0.0122649 0.0271609 -0.0191096 0.0119436 0.0265077 -0.0174161 0.0116543 0.0258679 
-0.0207603 0.0113185 0.0278009 -0.0194186 0.010856 0.0272877 -0.0180259 0.0104201 0.0267931 
-0.023722 0.0128754 0.0274855 -0.022238 0.0130666 0.026991 -0.0207489 0.0132237 0.0265331 
-0.0232392 0.0123741 0.027978 -0.0220011 0.0123221 0.027558 -0.0207557 0.0122649 0.0271609 
-0.0227387 0.0118783 0.0284868 -0.0217558 0.0115962 0.0281372 -0.0207603 0.0113185 0.0278009 
-0.0248729 0.014337 0.0261196 -0.0232278 0.0152721 0.0252478 -0.0215938 0.0160742 0.024484 
-0.0242835 0.0135939 0.0267752 -0.0227208 0.0141737 0.026102 -0.0211586 0.0146651 0.0254809 
-0.023722 0.0128754 0.0274855 -0.022238 0.0130666 0.026991 -0.0207489 0.0132237 0.0265331 
-0.035185 0.00723424 0.0325834 -0.0339348 0.00636467 0.0338497 -0.0326489 0.00546882 0.0351521 
-0.0338243 0.00609585 0.0315997 -0.0326262 0.00522678 0.0330131 -0.0313985 0.00433091 0.0344566 
-0.0324628 0.00497003 0.0305573 -0.0313278 0.00408438 0.0321381 -0.0301583 0.00317979 0.0337328 
-0.0326489 0.00546882 0.0351521 -0.0310128 0.00489042 0.0355338 -0.0293567 0.0043076 0.0359331 
-0.0313985 0.00433091 0.0344566 -0.0297344 0.00387123 0.0351936 -0.0280511 0.00340569 0.0359409 
-0.0301583 0.00317979 0.0337328 -0.0284442 0.0028259 0.0348418 -0.0267362 0.00248501 0.0359434 
-0.0301583 0.00317979 0.0337328 -0.0284442 0.0028259 0.0348418 -0.0267362 0.00248501 0.0359434 
-0.0284741 0.00214355 0.0330089 -0.0268064 0.00170284 0.0344758 -0.0251613 0.00129682 0.0359319 
-0.0267653 0.00111037 0.0322639 -0.0251301 0.000567278 0.0341035 -0.0235694 9.6577e-05 0.0359466 
-0.0324628 0.00497003 0.0305573 -0.0313278 0.00408438 0.0321381 -0.0301583 0.00317979 0.0337328 
-0.0307813 0.00418404 0.0293649 -0.0296499 0.00316772 0.0311782 -0.0284741 0.00214355 0.0330089 
-0.0290809 0.00344971 0.0281382 -0.027959 0.00227017 0.030194 -0.0267653 0.00111037 0.0322639 
-0.024349 0.00489227 0.0339479 -0.022736 0.00378036 0.0337565 -0.0210732 0.00263387 0.0335319 
-0.0255309 0.00368074 0.0349237 -0.0239315 0.00251526 0.0348083 -0.0223088 0.00132542 0.0346781 
-0.0267362 0.00248501 0.0359434 -0.0251613 0.00129682 0.0359319 -0.0235694 9.6577e-05 0.0359466 
-0.024349 0.00489227 0.0339479 -0.0234531 0.00616817 0.0328608 -0.0225313 0.00742817 0.0317801 
-0.022736 0.00378036 0.0337565 -0.0218774 0.00535308 0.0324728 -0.0210156 0.00689859 0.0311778 
-0.0210732 0.00263387 0.0335319 -0.0202244 0.00452777 0.0320666 -0.0194266 0.00638839 0.0305692 
-0.0215115 0.00946964 0.0295591 -0.0201661 0.00902883 0.0290221 -0.0187646 0.00861255 0.0284921 
-0.0220307 0.00844436 0.0306735 -0.0206008 0.00796613 0.0301059 -0.0191099 0.00751222 0.029539 
-0.0225313 0.00742817 0.0317801 -0.0210156 0.00689859 0.0311778 -0.0194266 0.00638839 0.0305692 
-0.0276504 0.00635814 0.034798 -0.0260246 0.00563055 0.0343649 -0.024349 0.00489227 0.0339479 
-0.0285126 0.00533849 0.0353522 -0.0270409 0.00452057 0.0351374 -0.0255309 0.00368074 0.0349237 
-0.0293567 0.0043076 0.0359331 -0.0280511 0.00340569 0.0359409 -0.0267362 0.00248501 0.0359434 
-0.0227387 0.0118783 0.0284868 -0.0217558 0.0115962 0.0281372 -0.0207603 0.0113185 0.0278009 
-0.0233058 0.0111738 0.0293946 -0.0222316 0.0107783 0.0290306 -0.0211418 0.0103908 0.0286827 
-0.0238671 0.0104806 0.0302961 -0.0227022 0.00996903 0.0299179 -0.0215115 0.00946964 0.0295591 
-0.0276504 0.00635814 0.034798 -0.0266446 0.00744376 0.0338387 -0.0256089 0.00852716 0.0328975 
-0.0260246 0.00563055 0.0343649 -0.0250744 0.00680413 0.0333369 -0.0240938 0.00796931 0.032324 
-0.024349 0.00489227 0.0339479 -0.0234531 0.00616817 0.0328608 -0.0225313 0.00742817 0.0317801 
-0.0207603 0.0113185 0.0278009 -0.0194186 0.010856 0.0272877 -0.0180259 0.0104201 0.0267931 
-0.0211418 0.0103908 0.0286827 -0.0197979 0.00994223 0.0281602 -0.0184016 0.00951859 0.0276505 
-0.0215115 0.00946964 0.0295591 -0.0201661 0.00902883 0.0290221 -0.0187646 0.00861255 0.0284921 
-0.0238671 0.0104806 0.0302961 -0.0227022 0.00996903 0.0299179 -0.0215115 0.00946964 0.0295591 
-0.0247457 0.00949417 0.0316011 -0.0234054 0.00896097 0.0311251 -0.0220307 0.00844436 0.0306735 
-0.0256089 0.00852716 0.0328975 -0.0240938 0.00796931 0.032324 -0.0225313 0.00742817 0.0317801 
-0.0229665 0.00618063 0.0148443 -0.0223807 0.0047473 0.0168673 -0.0219888 0.00322464 0.0188669 
-0.0207971 0.00545146 0.014002 -0.0203094 0.00402602 0.0158172 -0.0200264 0.00249037 0.0176433 
-0.0187635 0.00469437 0.0131066 -0.0183727 0.0032963 0.0147208 -0.0181939 0.00175621 0.016386 
-0.0213027 0.00917061 0.0125669 -0.0194057 0.00849942 0.0116172 -0.0176704 0.00781694 0.0106187 
-0.0200525 0.00996715 0.0124169 -0.0182337 0.00935153 0.0113327 -0.0165775 0.00874441 0.0102181 
-0.0188218 0.0107173 0.012288 -0.0171031 0.0101647 0.0110571 -0.0155395 0.00963956 0.00983312 
-0.0213027 0.00917061 0.0125669 -0.0221079 0.00764862 0.0137238 -0.0229665 0.00618063 0.0148443 
-0.0194057 0.00849942 0.0116172 -0.0200606 0.00695822 0.0128036 -0.0207971 0.00545146 0.014002 
-0.0176704 0.00781694 0.0106187 -0.0181665 0.00624642 0.0118472 -0.0187635 0.00469437 0.0131066 
-0.0219888 0.00322464 0.0188669 -0.02142 0.00172478 0.020864 -0.0208201 -0.000118904 0.0229387 
-0.0200264 0.00249037 0.0176433 -0.019486 0.000963056 0.0195464 -0.0189344 -0.00102376 0.0215277 
-0.0181939 0.00175621 0.016386 -0.0176866 0.000195609 0.0181833 -0.0171806 -0.00192569 0.0200333 
-0.0275402 0.0070886 0.0167484 -0.0268508 0.00586401 0.0191745 -0.0263035 0.0044138 0.0215515 
-0.0251691 0.00676878 0.015748 -0.0245531 0.00539342 0.0179959 -0.0240946 0.00389591 0.0201988 
-0.0229665 0.00618063 0.0148443 -0.0223807 0.0047473 0.0168673 -0.0219888 0.00322464 0.0188669 
-0.0320331 0.00742104 0.0199267 -0.0313423 0.00681338 0.0221156 -0.0306317 0.00576382 0.0242714 
-0.0297667 0.00730859 0.0181888 -0.0290925 0.00641138 0.0205342 -0.0284799 0.00515539 0.022856 
-0.0275402 0.0070886 0.0167484 -0.0268508 0.00586401 0.0191745 -0.0263035 0.0044138 0.0215515 
-0.0263035 0.0044138 0.0215515 -0.0256325 0.00313193 0.0235687 -0.0248969 0.00168645 0.0256094 
-0.0240946 0.00389591 0.0201988 -0.0234942 0.00246564 0.0222171 -0.0228287 0.000816196 0.0242891 
-0.0219888 0.00322464 0.0188669 -0.02142 0.00172478 0.020864 -0.0208201 -0.000118904 0.0229387 
-0.0306317 0.00576382 0.0242714 -0.0298681 0.00465906 0.0261977 -0.0290809 0.00344971 0.0281382 
-0.0284799 0.00515539 0.022856 -0.0277727 0.00393322 0.0248545 -0.0270094 0.00259056 0.0268585 
-0.0263035 0.0044138 0.0215515 -0.0256325 0.00313193 0.0235687 -0.0248969 0.00168645 0.0256094 
-0.0266019 0.010401 0.0138541 -0.0270757 0.00857055 0.015371 -0.0275402 0.0070886 0.0167484 
-0.0235836 0.00983909 0.0132101 -0.0243586 0.00825339 0.0145287 -0.0251691 0.00676878 0.015748 
-0.0213027 0.00917061 0.0125669 -0.0221079 0.00764862 0.0137238 -0.0229665 0.00618063 0.0148443 
-0.0334611 0.0115744 0.0170906 -0.0328578 0.00889583 0.0185643 -0.0320331 0.00742104 0.0199267 
-0.0298672 0.0109587 0.0150018 -0.0298496 0.00879066 0.0166692 -0.0297667 0.00730859 0.0181888 
-0.0266019 0.010401 0.0138541 -0.0270757 0.00857055 0.015371 -0.0275402 0.0070886 0.0167484 
-0.0266019 0.010401 0.0138541 -0.0235836 0.00983909 0.0132101 -0.0213027 0.00917061 0.0125669 
-0.025137 0.0116511 0.0139291 -0.0222207 0.0107281 0.0131711 -0.0200525 0.00996715 0.0124169 
-0.0234627 0.0127132 0.0140923 -0.0208741 0.011573 0.0131903 -0.0188218 0.0107173 0.012288 
-0.0334611 0.0115744 0.0170906 -0.0298672 0.0109587 0.0150018 -0.0266019 0.010401 0.0138541 
-0.0317748 0.0138556 0.017191 -0.0283238 0.0126731 0.0150996 -0.025137 0.0116511 0.0139291 
-0.0294826 0.0154822 0.0172314 -0.0263562 0.0140065 0.0152539 -0.0234627 0.0127132 0.0140923 
-0.0356954 0.0130603 0.0258786 -0.0340404 0.0143641 0.0253639 -0.03213 0.0154558 0.0246768 
-0.0354917 0.0126831 0.0272643 -0.0338843 0.0138637 0.0266775 -0.0321173 0.0149118 0.025988 
-0.0354286 0.0122777 0.0287915 -0.0338889 0.0134051 0.0281151 -0.0322395 0.0144765 0.0273897 
-0.0354286 0.0122777 0.0287915 -0.0347389 0.0113985 0.030248 -0.0340337 0.0104745 0.0318443 
-0.0359856 0.010582 0.0290171 -0.0353123 0.00974532 0.0305658 -0.0346408 0.00884596 0.0322192 
-0.0363768 0.00896646 0.0292096 -0.0357918 0.00814248 0.0308619 -0.035185 0.00723424 0.0325834 
-0.0356954 0.0130603 0.0258786 -0.0354917 0.0126831 0.0272643 -0.0354286 0.0122777 0.0287915 
-0.036236 0.0113926 0.0260761 -0.0360728 0.011019 0.027497 -0.0359856 0.010582 0.0290171 
-0.0365513 0.00995824 0.0262938 -0.0364549 0.00952129 0.0277272 -0.0363768 0.00896646 0.0292096 
-0.0354286 0.0122777 0.0287915 -0.0338889 0.0134051 0.0281151 -0.0322395 0.0144765 0.0273897 
-0.0347389 0.0113985 0.030248 -0.0332645 0.0125348 0.0295077 -0.0317134 0.0136301 0.0287553 
-0.0340337 0.0104745 0.0318443 -0.0326309 0.0116546 0.0310359 -0.0311687 0.0128101 0.0302364 
-0.0351119 0.00843888 0.0234728 -0.0345718 0.00786043 0.0253152 -0.034032 0.00688945 0.0271228 
-0.0336571 0.00786029 0.0217285 -0.0330141 0.00729438 0.0237552 -0.0323707 0.00629587 0.0257323 
-0.0320331 0.00742104 0.0199267 -0.0313423 0.00681338 0.0221156 -0.0306317 0.00576382 0.0242714 
-0.0363768 0.00896646 0.0292096 -0.0357918 0.00814248 0.0308619 -0.035185 0.00723424 0.0325834 
-0.0352403 0.0079039 0.0281981 -0.0345423 0.00704314 0.0298763 -0.0338243 0.00609585 0.0315997 
-0.034032 0.00688945 0.0271228 -0.0332652 0.00597575 0.0288218 -0.0324628 0.00497003 0.0305573 
-0.0365513 0.00995824 0.0262938 -0.0364549 0.00952129 0.0277272 -0.0363768 0.00896646 0.0292096 
-0.0359278 0.00921132 0.0249551 -0.0355761 0.00867581 0.026575 -0.0352403 0.0079039 0.0281981 
-0.0351119 0.00843888 0.0234728 -0.0345718 0.00786043 0.0253152 -0.034032 0.00688945 0.0271228 
-0.034032 0.00688945 0.0271228 -0.0332652 0.00597575 0.0288218 -0.0324628 0.00497003 0.0305573 
-0.0323707 0.00629587 0.0257323 -0.0315895 0.00528491 0.0275308 -0.0307813 0.00418404 0.0293649 
-0.0306317 0.00576382 0.0242714 -0.0298681 0.00465906 0.0261977 -0.0290809 0.00344971 0.0281382 
-0.0356954 0.0130603 0.0258786 -0.036236 0.0113926 0.0260761 -0.0365513 0.00995824 0.0262938 
-0.0356233 0.0127836 0.024423 -0.0358845 0.0107501 0.0246596 -0.0359278 0.00921132 0.0249551 
-0.0356235 0.0124539 0.0224773 -0.035445 0.00998941 0.0229526 -0.0351119 0.00843888 0.0234728 